/*--------------------------------*- C++ -*----------------------------------*\
| =========                 |                                                 |
| \\      /  F ield         | OpenFOAM: The Open Source CFD Toolbox           |
|  \\    /   O peration     | Version:  2.1.x                                 |
|   \\  /    A nd           | Web:      www.OpenFOAM.org                      |
|    \\/     M anipulation  |                                                 |
\*---------------------------------------------------------------------------*/
FoamFile
{
    version     2.0;
    format      ascii;
    class       volScalarField;
    location    "0";
    object      kappat;
}
// * * * * * * * * * * * * * * * * * * * * * * * * * * * * * * * * * * * * * //

#include        "../setUp"


dimensions      [0 2 -1 0 0 0 0];

internalField   uniform $kappat0;

boundaryField
{
    lower
    {
        // This boundary condition provides a kinematic turbulent thermal conductivity
        // for using wall functions, using the Jayatilleke 'P' function.
        type            alphatJayatillekeWallFunction;
        Prt             $Prt;
        Cmu             $Cmu;
        kappat          $kappa;
        E               $E;

        /*
        type            fixedValue;
        value           uniform 0.0;
        */
    }
    upper
    {
        type            calculated;  // fixedValue;
        value           uniform 0.0;
    }
    west
    {
        type            calculated;
        value           uniform 0.0;  // Placeholder
    }
    east
    {
        type            calculated;
        value           uniform 0.0;
    }
    north
    {
        type            calculated;
        value           uniform 0.0;
    }
    south
    {
        type            calculated;
        value           uniform 0.0;
    }
}


// ************************************************************************* //
