/*--------------------------------*- C++ -*----------------------------------*\
| =========                 |                                                 |
| \\      /  F ield         | OpenFOAM: The Open Source CFD Toolbox           |
|  \\    /   O peration     | Version:  1.6                                   |
|   \\  /    A nd           | Web:      www.OpenFOAM.org                      |
|    \\/     M anipulation  |                                                 |
\*---------------------------------------------------------------------------*/
FoamFile
{
    version     2.0;
    format      ascii;
    class       volSymmTensorField;
    location    "0";
    object      Rwall;
}
// * * * * * * * * * * * * * * * * * * * * * * * * * * * * * * * * * * * * * //

#include        "../setUp"

dimensions      [ 0 2 -2 0 0 0 0 ];

internalField   uniform (0.0 0.0 0.0 0.0 0.0 0.0);

boundaryField
{
    lower
    {
        // Rwall is governed by nut wall function thus 0
        type            fixedValue;
        value           uniform (0 0 0 0 0 0);

        /*
        type            SchumannGrotzbach;
        kappa           $kappa;
        z0              uniform $z0;
        betaM           $betaM;
        gammaM          $gammaM;
        averageType     "local";
        //averageType     "planarAverage";
        value           uniform $Rwall;
        */
    }
    upper
    {
        type            fixedValue;
        value           uniform (0 0 0 0 0 0);
    }
    west
    {
        type            fixedValue;
        value           uniform (0 0 0 0 0 0);
    }
    east
    {
        type            fixedValue;
        value           uniform (0 0 0 0 0 0);
    }
    north
    {
        type            fixedValue;
        value           uniform (0 0 0 0 0 0);
    }
    south
    {
        type            fixedValue;
        value           uniform (0 0 0 0 0 0);
    }
}


// ************************************************************************* //
